
FAST Summary File

Predictions were generated on 03-Nov-2023 at 18:13:54 using OpenFAST, compiled as a 64-bit application using double precision at commit v3.5.0
  compiled with
    NWTC Subroutine Library
    ElastoDyn
    BeamDyn (unknown version, unknown date) [not called]
    InflowWind (unknown version, unknown date) [not called]
    AeroDyn14 (unknown version, unknown date) [not called]
    AeroDyn
    ServoDyn (unknown version, unknown date) [not called]
    HydroDyn (unknown version, unknown date) [not called]
    SubDyn (unknown version, unknown date) [not called]
    ExtPtfm_MCKF (unknown version, unknown date) [not called]
    MAP (unknown version, unknown date) [not called]
    FEAMooring (unknown version, unknown date) [not called]
    MoorDyn (unknown version, unknown date) [not called]
    OrcaFlexInterface (unknown version, unknown date) [not called]
    IceFloe (unknown version, unknown date) [not called]
    IceDyn (unknown version, unknown date) [not called]


Modeling a land-based turbine
Description from the FAST input file: 
  NREL 5.0 MW Baseline Wind Turbine coupled to preCICE

Interpolation order for input/output time histories: 2 (quadratic)
Number of correction iterations:  0


   Requested Time Steps  
  -------------------------------------------------
  Component          Time Step (s)    Subcycles (-)
  -----------------  ---------------  -------------
  FAST (glue code)    1.000E-02
  ElastoDyn           1.000E-02              1
  AeroDyn             1.000E-02              1
  FAST output files   1.500E+00            150^-1


   Requested Channels in FAST Output File(s)  
  --------------------------------------------
  Number  Name                  Units                 Generated by
  ------  --------------------  --------------------  ------------
       1  Time                  (s)                   OpenFAST
       2  Wind1VelX             (m/s)                 OpenFOAM Integration
       3  Wind1VelY             (m/s)                 OpenFOAM Integration
       4  Wind1VelZ             (m/s)                 OpenFOAM Integration
       5  OoPDefl1              (m)                   ElastoDyn
       6  IPDefl1               (m)                   ElastoDyn
       7  TwstDefl1             (deg)                 ElastoDyn
       8  BldPitch1             (deg)                 ElastoDyn
       9  Azimuth               (deg)                 ElastoDyn
      10  RotSpeed              (rpm)                 ElastoDyn
      11  GenSpeed              (rpm)                 ElastoDyn
      12  TTDspFA               (m)                   ElastoDyn
      13  TTDspSS               (m)                   ElastoDyn
      14  TTDspTwst             (deg)                 ElastoDyn
      15  Spn2MLxb1             (kN-m)                ElastoDyn
      16  Spn2MLyb1             (kN-m)                ElastoDyn
      17  RootFxb1              (kN)                  ElastoDyn
      18  RootFyb1              (kN)                  ElastoDyn
      19  RootFzb1              (kN)                  ElastoDyn
      20  RootMxb1              (kN-m)                ElastoDyn
      21  RootMyb1              (kN-m)                ElastoDyn
      22  RootMzb1              (kN-m)                ElastoDyn
      23  RotTorq               (kN-m)                ElastoDyn
      24  LSSGagMya             (kN-m)                ElastoDyn
      25  LSSGagMza             (kN-m)                ElastoDyn
      26  YawBrFxp              (kN)                  ElastoDyn
      27  YawBrFyp              (kN)                  ElastoDyn
      28  YawBrFzp              (kN)                  ElastoDyn
      29  YawBrMxp              (kN-m)                ElastoDyn
      30  YawBrMyp              (kN-m)                ElastoDyn
      31  YawBrMzp              (kN-m)                ElastoDyn
      32  TwrBsFxt              (kN)                  ElastoDyn
      33  TwrBsFyt              (kN)                  ElastoDyn
      34  TwrBsFzt              (kN)                  ElastoDyn
      35  TwrBsMxt              (kN-m)                ElastoDyn
      36  TwrBsMyt              (kN-m)                ElastoDyn
      37  TwrBsMzt              (kN-m)                ElastoDyn
      38  B1N001TDx             (m)                   ElastoDyn
      39  B1N002TDx             (m)                   ElastoDyn
      40  B1N003TDx             (m)                   ElastoDyn
      41  B1N004TDx             (m)                   ElastoDyn
      42  B1N005TDx             (m)                   ElastoDyn
      43  B1N006TDx             (m)                   ElastoDyn
      44  B1N007TDx             (m)                   ElastoDyn
      45  B1N008TDx             (m)                   ElastoDyn
      46  B1N009TDx             (m)                   ElastoDyn
      47  B1N010TDx             (m)                   ElastoDyn
      48  B1N011TDx             (m)                   ElastoDyn
      49  B1N012TDx             (m)                   ElastoDyn
      50  B1N013TDx             (m)                   ElastoDyn
      51  B1N014TDx             (m)                   ElastoDyn
      52  B1N015TDx             (m)                   ElastoDyn
      53  B1N016TDx             (m)                   ElastoDyn
      54  B1N017TDx             (m)                   ElastoDyn
      55  AB1N001Alpha          (deg)                 AeroDyn
      56  AB1N002Alpha          (deg)                 AeroDyn
      57  AB1N003Alpha          (deg)                 AeroDyn
      58  AB1N004Alpha          (deg)                 AeroDyn
      59  AB1N005Alpha          (deg)                 AeroDyn
      60  AB1N006Alpha          (deg)                 AeroDyn
      61  AB1N007Alpha          (deg)                 AeroDyn
      62  AB1N008Alpha          (deg)                 AeroDyn
      63  AB1N009Alpha          (deg)                 AeroDyn
      64  AB1N010Alpha          (deg)                 AeroDyn
      65  AB1N011Alpha          (deg)                 AeroDyn
      66  AB1N012Alpha          (deg)                 AeroDyn
      67  AB1N013Alpha          (deg)                 AeroDyn
      68  AB1N014Alpha          (deg)                 AeroDyn
      69  AB1N015Alpha          (deg)                 AeroDyn
      70  AB1N016Alpha          (deg)                 AeroDyn
      71  AB1N017Alpha          (deg)                 AeroDyn
      72  AB1N018Alpha          (deg)                 AeroDyn
      73  AB1N019Alpha          (deg)                 AeroDyn
      74  AB1N020Alpha          (deg)                 AeroDyn
      75  AB1N021Alpha          (deg)                 AeroDyn
      76  AB1N022Alpha          (deg)                 AeroDyn
      77  AB1N023Alpha          (deg)                 AeroDyn
      78  AB1N024Alpha          (deg)                 AeroDyn
      79  AB1N025Alpha          (deg)                 AeroDyn
      80  AB1N026Alpha          (deg)                 AeroDyn
      81  AB1N027Alpha          (deg)                 AeroDyn
      82  AB1N028Alpha          (deg)                 AeroDyn
      83  AB1N029Alpha          (deg)                 AeroDyn
      84  AB1N030Alpha          (deg)                 AeroDyn
      85  AB1N031Alpha          (deg)                 AeroDyn
      86  AB1N032Alpha          (deg)                 AeroDyn
      87  AB1N033Alpha          (deg)                 AeroDyn
      88  AB1N034Alpha          (deg)                 AeroDyn
      89  AB1N035Alpha          (deg)                 AeroDyn
      90  AB1N036Alpha          (deg)                 AeroDyn
      91  AB1N037Alpha          (deg)                 AeroDyn
      92  AB1N038Alpha          (deg)                 AeroDyn
      93  AB1N039Alpha          (deg)                 AeroDyn
      94  AB1N040Alpha          (deg)                 AeroDyn
      95  AB1N041Alpha          (deg)                 AeroDyn
      96  AB1N042Alpha          (deg)                 AeroDyn
      97  AB1N043Alpha          (deg)                 AeroDyn
      98  AB1N044Alpha          (deg)                 AeroDyn
      99  AB1N045Alpha          (deg)                 AeroDyn
     100  AB1N046Alpha          (deg)                 AeroDyn
     101  AB1N047Alpha          (deg)                 AeroDyn
     102  AB1N048Alpha          (deg)                 AeroDyn
     103  AB1N049Alpha          (deg)                 AeroDyn
     104  AB1N050Alpha          (deg)                 AeroDyn
     105  AB1N051Alpha          (deg)                 AeroDyn
     106  AB1N052Alpha          (deg)                 AeroDyn
     107  AB1N053Alpha          (deg)                 AeroDyn
     108  AB1N054Alpha          (deg)                 AeroDyn
     109  AB1N055Alpha          (deg)                 AeroDyn
     110  AB1N056Alpha          (deg)                 AeroDyn
     111  AB1N057Alpha          (deg)                 AeroDyn
     112  AB1N058Alpha          (deg)                 AeroDyn
     113  AB1N059Alpha          (deg)                 AeroDyn
     114  AB1N060Alpha          (deg)                 AeroDyn
     115  AB1N061Alpha          (deg)                 AeroDyn
     116  AB1N062Alpha          (deg)                 AeroDyn
     117  AB1N063Alpha          (deg)                 AeroDyn
     118  AB1N064Alpha          (deg)                 AeroDyn
     119  AB1N065Alpha          (deg)                 AeroDyn
     120  AB1N066Alpha          (deg)                 AeroDyn
     121  AB1N067Alpha          (deg)                 AeroDyn
     122  AB1N068Alpha          (deg)                 AeroDyn
     123  AB1N069Alpha          (deg)                 AeroDyn
     124  AB1N070Alpha          (deg)                 AeroDyn
     125  AB1N071Alpha          (deg)                 AeroDyn
     126  AB1N072Alpha          (deg)                 AeroDyn
     127  AB1N073Alpha          (deg)                 AeroDyn
     128  AB1N074Alpha          (deg)                 AeroDyn
     129  AB1N075Alpha          (deg)                 AeroDyn
     130  AB1N076Alpha          (deg)                 AeroDyn
     131  AB1N077Alpha          (deg)                 AeroDyn
     132  AB1N078Alpha          (deg)                 AeroDyn
     133  AB1N079Alpha          (deg)                 AeroDyn
     134  AB1N080Alpha          (deg)                 AeroDyn
     135  AB1N081Alpha          (deg)                 AeroDyn
     136  AB1N082Alpha          (deg)                 AeroDyn
     137  AB1N083Alpha          (deg)                 AeroDyn
     138  AB1N084Alpha          (deg)                 AeroDyn
     139  AB1N085Alpha          (deg)                 AeroDyn
     140  AB1N086Alpha          (deg)                 AeroDyn
     141  AB1N087Alpha          (deg)                 AeroDyn
     142  AB1N088Alpha          (deg)                 AeroDyn
     143  AB1N089Alpha          (deg)                 AeroDyn
     144  AB1N090Alpha          (deg)                 AeroDyn
     145  AB1N091Alpha          (deg)                 AeroDyn
     146  AB1N092Alpha          (deg)                 AeroDyn
     147  AB1N093Alpha          (deg)                 AeroDyn
     148  AB1N094Alpha          (deg)                 AeroDyn
     149  AB1N095Alpha          (deg)                 AeroDyn
     150  AB1N096Alpha          (deg)                 AeroDyn
     151  AB1N097Alpha          (deg)                 AeroDyn
     152  AB1N098Alpha          (deg)                 AeroDyn
     153  AB1N099Alpha          (deg)                 AeroDyn
     154  AB1N100Alpha          (deg)                 AeroDyn
     155  AB1N101Alpha          (deg)                 AeroDyn
     156  AB1N102Alpha          (deg)                 AeroDyn
     157  AB1N103Alpha          (deg)                 AeroDyn
     158  AB1N104Alpha          (deg)                 AeroDyn
     159  AB1N105Alpha          (deg)                 AeroDyn
     160  AB1N106Alpha          (deg)                 AeroDyn
     161  AB1N107Alpha          (deg)                 AeroDyn
     162  AB1N108Alpha          (deg)                 AeroDyn
     163  AB1N109Alpha          (deg)                 AeroDyn
     164  AB1N110Alpha          (deg)                 AeroDyn
     165  AB1N111Alpha          (deg)                 AeroDyn
     166  AB1N112Alpha          (deg)                 AeroDyn
     167  AB1N113Alpha          (deg)                 AeroDyn
     168  AB1N114Alpha          (deg)                 AeroDyn
     169  AB1N115Alpha          (deg)                 AeroDyn
     170  AB1N116Alpha          (deg)                 AeroDyn
     171  AB1N117Alpha          (deg)                 AeroDyn
     172  AB1N118Alpha          (deg)                 AeroDyn
     173  AB1N119Alpha          (deg)                 AeroDyn
     174  AB1N120Alpha          (deg)                 AeroDyn
     175  AB1N121Alpha          (deg)                 AeroDyn
     176  AB1N122Alpha          (deg)                 AeroDyn
     177  AB1N123Alpha          (deg)                 AeroDyn
     178  AB1N124Alpha          (deg)                 AeroDyn
     179  AB1N125Alpha          (deg)                 AeroDyn
     180  AB1N126Alpha          (deg)                 AeroDyn
     181  AB1N127Alpha          (deg)                 AeroDyn
     182  AB1N128Alpha          (deg)                 AeroDyn
     183  AB1N129Alpha          (deg)                 AeroDyn
     184  AB1N130Alpha          (deg)                 AeroDyn
     185  AB1N131Alpha          (deg)                 AeroDyn
     186  AB1N132Alpha          (deg)                 AeroDyn
     187  AB1N133Alpha          (deg)                 AeroDyn
     188  AB1N134Alpha          (deg)                 AeroDyn
     189  AB1N135Alpha          (deg)                 AeroDyn
     190  AB1N136Alpha          (deg)                 AeroDyn
     191  AB1N137Alpha          (deg)                 AeroDyn
     192  AB1N138Alpha          (deg)                 AeroDyn
     193  AB1N139Alpha          (deg)                 AeroDyn
     194  AB1N140Alpha          (deg)                 AeroDyn
     195  AB1N141Alpha          (deg)                 AeroDyn
     196  AB1N142Alpha          (deg)                 AeroDyn
     197  AB1N143Alpha          (deg)                 AeroDyn
     198  AB1N144Alpha          (deg)                 AeroDyn
     199  AB1N145Alpha          (deg)                 AeroDyn
     200  AB1N146Alpha          (deg)                 AeroDyn
     201  AB1N147Alpha          (deg)                 AeroDyn
     202  AB1N148Alpha          (deg)                 AeroDyn
     203  AB1N149Alpha          (deg)                 AeroDyn
     204  AB1N150Alpha          (deg)                 AeroDyn
     205  AB1N151Alpha          (deg)                 AeroDyn
     206  AB1N152Alpha          (deg)                 AeroDyn
     207  AB1N153Alpha          (deg)                 AeroDyn
     208  AB1N154Alpha          (deg)                 AeroDyn
     209  AB1N155Alpha          (deg)                 AeroDyn
     210  AB1N156Alpha          (deg)                 AeroDyn
     211  AB1N157Alpha          (deg)                 AeroDyn
     212  AB1N158Alpha          (deg)                 AeroDyn
     213  AB1N159Alpha          (deg)                 AeroDyn
     214  AB1N160Alpha          (deg)                 AeroDyn
     215  AB1N161Alpha          (deg)                 AeroDyn
     216  AB1N162Alpha          (deg)                 AeroDyn
     217  AB1N163Alpha          (deg)                 AeroDyn
     218  AB1N164Alpha          (deg)                 AeroDyn
     219  AB1N165Alpha          (deg)                 AeroDyn
     220  AB1N166Alpha          (deg)                 AeroDyn
     221  AB1N167Alpha          (deg)                 AeroDyn
     222  AB1N168Alpha          (deg)                 AeroDyn
     223  AB1N169Alpha          (deg)                 AeroDyn
     224  AB1N170Alpha          (deg)                 AeroDyn
     225  AB1N171Alpha          (deg)                 AeroDyn
     226  AB1N172Alpha          (deg)                 AeroDyn
     227  AB1N173Alpha          (deg)                 AeroDyn
     228  AB1N174Alpha          (deg)                 AeroDyn
     229  AB1N175Alpha          (deg)                 AeroDyn
     230  AB1N176Alpha          (deg)                 AeroDyn
     231  AB1N177Alpha          (deg)                 AeroDyn
     232  AB1N178Alpha          (deg)                 AeroDyn
     233  AB1N179Alpha          (deg)                 AeroDyn
     234  AB1N180Alpha          (deg)                 AeroDyn
     235  AB1N181Alpha          (deg)                 AeroDyn
     236  AB1N182Alpha          (deg)                 AeroDyn
     237  AB1N183Alpha          (deg)                 AeroDyn
     238  AB1N184Alpha          (deg)                 AeroDyn
     239  AB1N185Alpha          (deg)                 AeroDyn
     240  AB1N186Alpha          (deg)                 AeroDyn
     241  AB1N187Alpha          (deg)                 AeroDyn
     242  AB1N188Alpha          (deg)                 AeroDyn
     243  AB1N189Alpha          (deg)                 AeroDyn
     244  AB1N190Alpha          (deg)                 AeroDyn
     245  AB1N191Alpha          (deg)                 AeroDyn
     246  AB1N192Alpha          (deg)                 AeroDyn
     247  AB1N193Alpha          (deg)                 AeroDyn
     248  AB1N194Alpha          (deg)                 AeroDyn
     249  AB1N195Alpha          (deg)                 AeroDyn
     250  AB1N196Alpha          (deg)                 AeroDyn
     251  AB1N197Alpha          (deg)                 AeroDyn
     252  AB1N198Alpha          (deg)                 AeroDyn
     253  AB1N199Alpha          (deg)                 AeroDyn
     254  AB1N200Alpha          (deg)                 AeroDyn
     255  AB1N201Alpha          (deg)                 AeroDyn
     256  AB1N202Alpha          (deg)                 AeroDyn
     257  AB1N203Alpha          (deg)                 AeroDyn
     258  AB1N204Alpha          (deg)                 AeroDyn
     259  AB1N205Alpha          (deg)                 AeroDyn
     260  AB1N206Alpha          (deg)                 AeroDyn
     261  AB1N207Alpha          (deg)                 AeroDyn
     262  AB1N208Alpha          (deg)                 AeroDyn
     263  AB1N209Alpha          (deg)                 AeroDyn
     264  AB1N210Alpha          (deg)                 AeroDyn
     265  AB1N211Alpha          (deg)                 AeroDyn
     266  AB1N212Alpha          (deg)                 AeroDyn
     267  AB1N213Alpha          (deg)                 AeroDyn
     268  AB1N214Alpha          (deg)                 AeroDyn
     269  AB1N215Alpha          (deg)                 AeroDyn
     270  AB1N216Alpha          (deg)                 AeroDyn
     271  AB1N217Alpha          (deg)                 AeroDyn
     272  AB1N218Alpha          (deg)                 AeroDyn
     273  AB1N219Alpha          (deg)                 AeroDyn
     274  AB1N220Alpha          (deg)                 AeroDyn
     275  AB1N221Alpha          (deg)                 AeroDyn
     276  AB1N222Alpha          (deg)                 AeroDyn
     277  AB1N223Alpha          (deg)                 AeroDyn
     278  AB1N224Alpha          (deg)                 AeroDyn
     279  AB1N225Alpha          (deg)                 AeroDyn
     280  AB1N226Alpha          (deg)                 AeroDyn
     281  AB1N227Alpha          (deg)                 AeroDyn
     282  AB1N228Alpha          (deg)                 AeroDyn
     283  AB1N229Alpha          (deg)                 AeroDyn
     284  AB1N230Alpha          (deg)                 AeroDyn
     285  AB1N231Alpha          (deg)                 AeroDyn
     286  AB1N232Alpha          (deg)                 AeroDyn
     287  AB1N233Alpha          (deg)                 AeroDyn
     288  AB1N234Alpha          (deg)                 AeroDyn
     289  AB1N235Alpha          (deg)                 AeroDyn
     290  AB1N236Alpha          (deg)                 AeroDyn
     291  AB1N237Alpha          (deg)                 AeroDyn
     292  AB1N238Alpha          (deg)                 AeroDyn
     293  AB1N239Alpha          (deg)                 AeroDyn
     294  AB1N240Alpha          (deg)                 AeroDyn
     295  AB1N241Alpha          (deg)                 AeroDyn
     296  AB1N242Alpha          (deg)                 AeroDyn
     297  AB1N243Alpha          (deg)                 AeroDyn
     298  AB1N244Alpha          (deg)                 AeroDyn
     299  AB1N245Alpha          (deg)                 AeroDyn
     300  AB1N246Alpha          (deg)                 AeroDyn
     301  AB1N247Alpha          (deg)                 AeroDyn
     302  AB1N248Alpha          (deg)                 AeroDyn
     303  AB1N249Alpha          (deg)                 AeroDyn
     304  AB1N250Alpha          (deg)                 AeroDyn
     305  AB1N251Alpha          (deg)                 AeroDyn
     306  AB1N252Alpha          (deg)                 AeroDyn
     307  AB1N253Alpha          (deg)                 AeroDyn
     308  AB1N254Alpha          (deg)                 AeroDyn
     309  AB1N255Alpha          (deg)                 AeroDyn
     310  AB1N256Alpha          (deg)                 AeroDyn
     311  AB1N257Alpha          (deg)                 AeroDyn
     312  AB1N258Alpha          (deg)                 AeroDyn
     313  AB1N259Alpha          (deg)                 AeroDyn
     314  AB1N260Alpha          (deg)                 AeroDyn
     315  AB1N261Alpha          (deg)                 AeroDyn
     316  AB1N262Alpha          (deg)                 AeroDyn
     317  AB1N263Alpha          (deg)                 AeroDyn
     318  AB1N264Alpha          (deg)                 AeroDyn
     319  AB1N265Alpha          (deg)                 AeroDyn
     320  AB1N266Alpha          (deg)                 AeroDyn
     321  AB1N267Alpha          (deg)                 AeroDyn
     322  AB1N268Alpha          (deg)                 AeroDyn
     323  AB1N269Alpha          (deg)                 AeroDyn
     324  AB1N270Alpha          (deg)                 AeroDyn
     325  AB1N271Alpha          (deg)                 AeroDyn
     326  AB1N272Alpha          (deg)                 AeroDyn
     327  AB1N273Alpha          (deg)                 AeroDyn
     328  AB1N274Alpha          (deg)                 AeroDyn
     329  AB1N275Alpha          (deg)                 AeroDyn
     330  AB1N276Alpha          (deg)                 AeroDyn
     331  AB1N277Alpha          (deg)                 AeroDyn
     332  AB1N278Alpha          (deg)                 AeroDyn
     333  AB1N279Alpha          (deg)                 AeroDyn
     334  AB1N280Alpha          (deg)                 AeroDyn
     335  AB1N281Alpha          (deg)                 AeroDyn
     336  AB1N282Alpha          (deg)                 AeroDyn
     337  AB1N283Alpha          (deg)                 AeroDyn
     338  AB1N284Alpha          (deg)                 AeroDyn
     339  AB1N285Alpha          (deg)                 AeroDyn
     340  AB1N286Alpha          (deg)                 AeroDyn
     341  AB1N287Alpha          (deg)                 AeroDyn
     342  AB1N288Alpha          (deg)                 AeroDyn
     343  AB1N289Alpha          (deg)                 AeroDyn
     344  AB1N290Alpha          (deg)                 AeroDyn
     345  AB1N291Alpha          (deg)                 AeroDyn
     346  AB1N292Alpha          (deg)                 AeroDyn
     347  AB1N293Alpha          (deg)                 AeroDyn
     348  AB1N294Alpha          (deg)                 AeroDyn
     349  AB1N295Alpha          (deg)                 AeroDyn
     350  AB1N296Alpha          (deg)                 AeroDyn
     351  AB1N297Alpha          (deg)                 AeroDyn
     352  AB1N298Alpha          (deg)                 AeroDyn
     353  AB1N299Alpha          (deg)                 AeroDyn
     354  AB1N300Alpha          (deg)                 AeroDyn
     355  AB1N301Alpha          (deg)                 AeroDyn
     356  AB1N302Alpha          (deg)                 AeroDyn
     357  AB1N303Alpha          (deg)                 AeroDyn
     358  AB1N304Alpha          (deg)                 AeroDyn
     359  AB1N305Alpha          (deg)                 AeroDyn
     360  AB1N306Alpha          (deg)                 AeroDyn
     361  AB1N307Alpha          (deg)                 AeroDyn
     362  AB1N001VUndx          (m/s)                 AeroDyn
     363  AB1N002VUndx          (m/s)                 AeroDyn
     364  AB1N003VUndx          (m/s)                 AeroDyn
     365  AB1N004VUndx          (m/s)                 AeroDyn
     366  AB1N005VUndx          (m/s)                 AeroDyn
     367  AB1N006VUndx          (m/s)                 AeroDyn
     368  AB1N007VUndx          (m/s)                 AeroDyn
     369  AB1N008VUndx          (m/s)                 AeroDyn
     370  AB1N009VUndx          (m/s)                 AeroDyn
     371  AB1N010VUndx          (m/s)                 AeroDyn
     372  AB1N011VUndx          (m/s)                 AeroDyn
     373  AB1N012VUndx          (m/s)                 AeroDyn
     374  AB1N013VUndx          (m/s)                 AeroDyn
     375  AB1N014VUndx          (m/s)                 AeroDyn
     376  AB1N015VUndx          (m/s)                 AeroDyn
     377  AB1N016VUndx          (m/s)                 AeroDyn
     378  AB1N017VUndx          (m/s)                 AeroDyn
     379  AB1N018VUndx          (m/s)                 AeroDyn
     380  AB1N019VUndx          (m/s)                 AeroDyn
     381  AB1N020VUndx          (m/s)                 AeroDyn
     382  AB1N021VUndx          (m/s)                 AeroDyn
     383  AB1N022VUndx          (m/s)                 AeroDyn
     384  AB1N023VUndx          (m/s)                 AeroDyn
     385  AB1N024VUndx          (m/s)                 AeroDyn
     386  AB1N025VUndx          (m/s)                 AeroDyn
     387  AB1N026VUndx          (m/s)                 AeroDyn
     388  AB1N027VUndx          (m/s)                 AeroDyn
     389  AB1N028VUndx          (m/s)                 AeroDyn
     390  AB1N029VUndx          (m/s)                 AeroDyn
     391  AB1N030VUndx          (m/s)                 AeroDyn
     392  AB1N031VUndx          (m/s)                 AeroDyn
     393  AB1N032VUndx          (m/s)                 AeroDyn
     394  AB1N033VUndx          (m/s)                 AeroDyn
     395  AB1N034VUndx          (m/s)                 AeroDyn
     396  AB1N035VUndx          (m/s)                 AeroDyn
     397  AB1N036VUndx          (m/s)                 AeroDyn
     398  AB1N037VUndx          (m/s)                 AeroDyn
     399  AB1N038VUndx          (m/s)                 AeroDyn
     400  AB1N039VUndx          (m/s)                 AeroDyn
     401  AB1N040VUndx          (m/s)                 AeroDyn
     402  AB1N041VUndx          (m/s)                 AeroDyn
     403  AB1N042VUndx          (m/s)                 AeroDyn
     404  AB1N043VUndx          (m/s)                 AeroDyn
     405  AB1N044VUndx          (m/s)                 AeroDyn
     406  AB1N045VUndx          (m/s)                 AeroDyn
     407  AB1N046VUndx          (m/s)                 AeroDyn
     408  AB1N047VUndx          (m/s)                 AeroDyn
     409  AB1N048VUndx          (m/s)                 AeroDyn
     410  AB1N049VUndx          (m/s)                 AeroDyn
     411  AB1N050VUndx          (m/s)                 AeroDyn
     412  AB1N051VUndx          (m/s)                 AeroDyn
     413  AB1N052VUndx          (m/s)                 AeroDyn
     414  AB1N053VUndx          (m/s)                 AeroDyn
     415  AB1N054VUndx          (m/s)                 AeroDyn
     416  AB1N055VUndx          (m/s)                 AeroDyn
     417  AB1N056VUndx          (m/s)                 AeroDyn
     418  AB1N057VUndx          (m/s)                 AeroDyn
     419  AB1N058VUndx          (m/s)                 AeroDyn
     420  AB1N059VUndx          (m/s)                 AeroDyn
     421  AB1N060VUndx          (m/s)                 AeroDyn
     422  AB1N061VUndx          (m/s)                 AeroDyn
     423  AB1N062VUndx          (m/s)                 AeroDyn
     424  AB1N063VUndx          (m/s)                 AeroDyn
     425  AB1N064VUndx          (m/s)                 AeroDyn
     426  AB1N065VUndx          (m/s)                 AeroDyn
     427  AB1N066VUndx          (m/s)                 AeroDyn
     428  AB1N067VUndx          (m/s)                 AeroDyn
     429  AB1N068VUndx          (m/s)                 AeroDyn
     430  AB1N069VUndx          (m/s)                 AeroDyn
     431  AB1N070VUndx          (m/s)                 AeroDyn
     432  AB1N071VUndx          (m/s)                 AeroDyn
     433  AB1N072VUndx          (m/s)                 AeroDyn
     434  AB1N073VUndx          (m/s)                 AeroDyn
     435  AB1N074VUndx          (m/s)                 AeroDyn
     436  AB1N075VUndx          (m/s)                 AeroDyn
     437  AB1N076VUndx          (m/s)                 AeroDyn
     438  AB1N077VUndx          (m/s)                 AeroDyn
     439  AB1N078VUndx          (m/s)                 AeroDyn
     440  AB1N079VUndx          (m/s)                 AeroDyn
     441  AB1N080VUndx          (m/s)                 AeroDyn
     442  AB1N081VUndx          (m/s)                 AeroDyn
     443  AB1N082VUndx          (m/s)                 AeroDyn
     444  AB1N083VUndx          (m/s)                 AeroDyn
     445  AB1N084VUndx          (m/s)                 AeroDyn
     446  AB1N085VUndx          (m/s)                 AeroDyn
     447  AB1N086VUndx          (m/s)                 AeroDyn
     448  AB1N087VUndx          (m/s)                 AeroDyn
     449  AB1N088VUndx          (m/s)                 AeroDyn
     450  AB1N089VUndx          (m/s)                 AeroDyn
     451  AB1N090VUndx          (m/s)                 AeroDyn
     452  AB1N091VUndx          (m/s)                 AeroDyn